 Gaussian 09, Revision D.01,
 Gaussian 09:  ES64L-G09RevD.01 24-Apr-2013

 ----------------------------------------------------------------------
 #p HF/6-31G guess=read scf=(xqc,maxcon=128,maxcyc=512,conver=8) force
 IOp(1/10=10) IOp(1/18=10) IOp(2/15=3) IOp(2/12=1)
 ----------------------------------------------------------------------

 ----------------------------
 force calculation: 1 0 0 0 0
 ----------------------------
 Symbolic Z-matrix:
 Charge =  0 Multiplicity = 1

                          Input orientation:
 ---------------------------------------------------------------------
 Center     Atomic      Atomic             Coordinates (Angstroms)
 Number     Number       Type             X           Y           Z
 ---------------------------------------------------------------------
      1          8           0       -0.743800   -0.020303   -0.397491
      2          1           0       -1.241139    0.636471    0.074844
      3          1           0       -1.313015   -0.616168   -0.869440
 ---------------------------------------------------------------------

 SCF Done:  E(RHF) =  -75.9853591693     A.U. after    6 cycles

 Alpha  occ. eigenvalues --  -20.55348  -1.35253  -0.72638  -0.54824  -0.49830
 Alpha virt. eigenvalues --    0.20699   0.30291   1.10546   1.16122   1.16717
 Alpha virt. eigenvalues --    1.20464   1.38894   1.67610

 Mulliken charges:
               1
     1  O   -0.811240
     2  H    0.405620
     3  H    0.405620
 Sum of Mulliken charges =   0.00000

 Dipole moment (field-independent basis, Debye):
    X=             -2.4965    Y=              0.1426    Z=              0.0009  Tot=              2.5006
 Quadrupole moment (field-independent basis, Debye-Ang):
   XX=             -2.0519   YY=             -5.0979   ZZ=             -6.0032
   XY=             -0.0162   XZ=              1.0819   YZ=              1.5248

 Optimization completed.
    -- Stationary point found.
 Normal termination of Gaussian 09 at Fri Jan  3 19:17:27 2020.
