 Gaussian 09, Revision D.01,
 Gaussian 09:  ES64L-G09RevD.01 24-Apr-2013

 ----------------------------------------------------------------------
 #p HF/6-31G guess=read scf=(xqc,maxcon=128,maxcyc=512,conver=8) freq=n
 oraman IOp(7/8=20000) IOp(1/10=10) IOp(1/18=10) IOp(2/15=3) IOp(2/12=1
 )
 ----------------------------------------------------------------------

 --------------------------------
 frequency calculation: 1 0 0 0 0
 --------------------------------
 Symbolic Z-matrix:
 Charge =  0 Multiplicity = 1

                          Input orientation:
 ---------------------------------------------------------------------
 Center     Atomic      Atomic             Coordinates (Angstroms)
 Number     Number       Type             X           Y           Z
 ---------------------------------------------------------------------
      1          8           0       -1.158815    0.003416   -0.397360
      2          1           0       -0.589605    0.599133    0.074779
      3          1           0       -0.661480   -0.653506   -0.869504
 ---------------------------------------------------------------------

 SCF Done:  E(RHF) =  -75.9853591692     A.U. after    1 cycles

 Alpha  occ. eigenvalues --  -20.55349  -1.35253  -0.72638  -0.54824  -0.49830
 Alpha virt. eigenvalues --    0.20699   0.30291   1.10546   1.16122   1.16717
 Alpha virt. eigenvalues --    1.20464   1.38894   1.67611

 Mulliken charges:
               1
     1  O   -0.811239
     2  H    0.405619
     3  H    0.405620
 Sum of Mulliken charges =   0.00000

 Dipole moment (field-independent basis, Debye):
    X=              2.4965    Y=             -0.1433    Z=              0.0000  Tot=              2.5006
 Quadrupole moment (field-independent basis, Debye-Ang):
   XX=            -11.5516   YY=             -5.0930   ZZ=             -6.0025
   XY=              0.2133   XZ=             -0.9013   YZ=              1.6384

  Exact polarizability:   3.846   0.052   4.744   0.144   2.504   3.301
 Approx polarizability:   2.798   0.039   3.482   0.107   1.869   2.405

 Optimization completed.
    -- Stationary point found.
 Normal termination of Gaussian 09 at Sun Feb  9 21:17:04 2020.
